<?xml version="1.0" encoding="UTF-8"?>

<!-- generated on 2024-09-16 07:08:47 by Eclipse SUMO GUI Version 1.20.0
<configuration xmlns:xsi="http://www.w3.org/2001/XMLSchema-instance" xsi:noNamespaceSchemaLocation="http://sumo.dlr.de/xsd/sumoConfiguration.xsd">

    <input>
        <net-file value="mynetw.net.xml"/>
        <route-files value="myrou.rou.xml"/>
        <additional-files value="additional.xml"/>
    </input>

    <output>
        <tripinfo-output value="tripinfo.xml"/>
    </output>

    <time>
        <begin value="0"/>
        <end value="3600"/>
    </time>

    <traci_server>
        <remote-port value="53435"/>
    </traci_server>

</configuration>
-->

<tripinfos xmlns:xsi="http://www.w3.org/2001/XMLSchema-instance" xsi:noNamespaceSchemaLocation="http://sumo.dlr.de/xsd/tripinfo_file.xsd">
    <tripinfo id="flow3.0" depart="0.00" departLane="-E5_0" departPos="5.10" departSpeed="0.00" departDelay="0.00" arrival="70.00" arrivalLane="E10_0" arrivalPos="33.72" arrivalSpeed="9.70" duration="70.00" routeLength="323.68" waitingTime="23.00" waitingCount="1" stopTime="0.00" timeLoss="45.11" rerouteNo="0" devices="tripinfo_flow3.0" vType="car" speedFactor="1.01" vaporized=""/>
    <tripinfo id="flow2.0" depart="0.00" departLane="-E1_0" departPos="5.10" departSpeed="0.00" departDelay="0.00" arrival="81.00" arrivalLane="E9_0" arrivalPos="51.14" arrivalSpeed="10.62" duration="81.00" routeLength="339.82" waitingTime="32.00" waitingCount="1" stopTime="0.00" timeLoss="53.30" rerouteNo="0" devices="tripinfo_flow2.0" vType="car" speedFactor="0.94" vaporized=""/>
    <tripinfo id="flow2.1" depart="10.00" departLane="-E1_0" departPos="5.10" departSpeed="0.00" departDelay="0.00" arrival="85.00" arrivalLane="E9_0" arrivalPos="51.14" arrivalSpeed="11.26" duration="75.00" routeLength="339.82" waitingTime="22.00" waitingCount="1" stopTime="0.00" timeLoss="49.54" rerouteNo="0" devices="tripinfo_flow2.1" vType="car" speedFactor="1.03" vaporized=""/>
    <tripinfo id="flow3.1" depart="10.00" departLane="-E5_0" departPos="5.10" departSpeed="0.00" departDelay="0.00" arrival="85.00" arrivalLane="E10_0" arrivalPos="33.72" arrivalSpeed="7.85" duration="75.00" routeLength="323.68" waitingTime="20.00" waitingCount="3" stopTime="0.00" timeLoss="44.81" rerouteNo="0" devices="tripinfo_flow3.1" vType="car" speedFactor="0.83" vaporized=""/>
    <tripinfo id="flow2.2" depart="20.00" departLane="-E1_0" departPos="5.10" departSpeed="0.00" departDelay="0.00" arrival="88.00" arrivalLane="E9_0" arrivalPos="51.14" arrivalSpeed="10.24" duration="68.00" routeLength="339.82" waitingTime="16.00" waitingCount="1" stopTime="0.00" timeLoss="37.79" rerouteNo="0" devices="tripinfo_flow2.2" vType="car" speedFactor="0.89" vaporized=""/>
    <tripinfo id="flow2.3" depart="30.00" departLane="-E1_0" departPos="5.10" departSpeed="0.00" departDelay="0.00" arrival="90.00" arrivalLane="E9_0" arrivalPos="51.14" arrivalSpeed="11.22" duration="60.00" routeLength="339.82" waitingTime="7.00" waitingCount="1" stopTime="0.00" timeLoss="36.02" rerouteNo="0" devices="tripinfo_flow2.3" vType="car" speedFactor="1.09" vaporized=""/>
    <tripinfo id="flow3.2" depart="20.00" departLane="-E5_0" departPos="5.10" departSpeed="0.00" departDelay="0.00" arrival="92.00" arrivalLane="E10_0" arrivalPos="33.72" arrivalSpeed="7.95" duration="72.00" routeLength="323.68" waitingTime="15.00" waitingCount="4" stopTime="0.00" timeLoss="45.20" rerouteNo="0" devices="tripinfo_flow3.2" vType="car" speedFactor="0.94" vaporized=""/>
    <tripinfo id="flow2.4" depart="40.00" departLane="-E1_0" departPos="5.10" departSpeed="0.00" departDelay="0.00" arrival="92.00" arrivalLane="E9_0" arrivalPos="51.14" arrivalSpeed="11.38" duration="52.00" routeLength="339.82" waitingTime="1.00" waitingCount="1" stopTime="0.00" timeLoss="28.32" rerouteNo="0" devices="tripinfo_flow2.4" vType="car" speedFactor="1.12" vaporized=""/>
    <tripinfo id="flow3.3" depart="30.00" departLane="-E5_0" departPos="5.10" departSpeed="0.00" departDelay="0.00" arrival="98.00" arrivalLane="E10_0" arrivalPos="33.72" arrivalSpeed="7.72" duration="68.00" routeLength="323.68" waitingTime="3.00" waitingCount="2" stopTime="0.00" timeLoss="44.04" rerouteNo="0" devices="tripinfo_flow3.3" vType="car" speedFactor="1.03" vaporized=""/>
    <tripinfo id="flow0.0" depart="0.00" departLane="-E10_0" departPos="5.10" departSpeed="0.00" departDelay="0.00" arrival="101.00" arrivalLane="E10_0" arrivalPos="33.72" arrivalSpeed="8.71" duration="101.00" routeLength="540.68" waitingTime="5.00" waitingCount="1" stopTime="0.00" timeLoss="61.85" rerouteNo="0" devices="tripinfo_flow0.0" vType="car" speedFactor="1.06" vaporized=""/>
    <tripinfo id="flow0.1" depart="10.00" departLane="-E10_0" departPos="5.10" departSpeed="0.00" departDelay="0.00" arrival="113.00" arrivalLane="E10_0" arrivalPos="33.72" arrivalSpeed="7.75" duration="103.00" routeLength="540.68" waitingTime="7.00" waitingCount="4" stopTime="0.00" timeLoss="64.07" rerouteNo="0" devices="tripinfo_flow0.1" vType="car" speedFactor="1.08" vaporized=""/>
    <tripinfo id="flow2.5" depart="50.00" departLane="-E1_0" departPos="5.10" departSpeed="0.00" departDelay="0.00" arrival="147.00" arrivalLane="E9_0" arrivalPos="51.14" arrivalSpeed="10.14" duration="97.00" routeLength="339.82" waitingTime="46.00" waitingCount="1" stopTime="0.00" timeLoss="67.09" rerouteNo="0" devices="tripinfo_flow2.5" vType="car" speedFactor="0.88" vaporized=""/>
    <tripinfo id="flow2.6" depart="60.00" departLane="-E1_0" departPos="5.10" departSpeed="0.00" departDelay="0.00" arrival="148.00" arrivalLane="E9_0" arrivalPos="51.14" arrivalSpeed="9.76" duration="88.00" routeLength="339.82" waitingTime="41.00" waitingCount="1" stopTime="0.00" timeLoss="65.88" rerouteNo="0" devices="tripinfo_flow2.6" vType="car" speedFactor="1.16" vaporized=""/>
    <tripinfo id="flow2.7" depart="70.00" departLane="-E1_0" departPos="5.10" departSpeed="0.00" departDelay="0.00" arrival="173.00" arrivalLane="E9_0" arrivalPos="51.14" arrivalSpeed="10.97" duration="103.00" routeLength="339.82" waitingTime="48.00" waitingCount="2" stopTime="0.00" timeLoss="76.49" rerouteNo="0" devices="tripinfo_flow2.7" vType="car" speedFactor="0.97" vaporized=""/>
    <tripinfo id="flow3.4" depart="40.00" departLane="-E5_0" departPos="5.10" departSpeed="0.00" departDelay="0.00" arrival="175.00" arrivalLane="E10_0" arrivalPos="33.72" arrivalSpeed="8.07" duration="135.00" routeLength="323.68" waitingTime="72.00" waitingCount="4" stopTime="0.00" timeLoss="109.63" rerouteNo="0" devices="tripinfo_flow3.4" vType="car" speedFactor="0.99" vaporized=""/>
    <tripinfo id="flow3.5" depart="50.00" departLane="-E5_0" departPos="5.10" departSpeed="0.00" departDelay="0.00" arrival="181.00" arrivalLane="E10_0" arrivalPos="33.72" arrivalSpeed="7.51" duration="131.00" routeLength="323.68" waitingTime="63.00" waitingCount="4" stopTime="0.00" timeLoss="104.61" rerouteNo="0" devices="tripinfo_flow3.5" vType="car" speedFactor="0.94" vaporized=""/>
    <tripinfo id="flow3.6" depart="60.00" departLane="-E5_0" departPos="5.10" departSpeed="0.00" departDelay="0.00" arrival="191.00" arrivalLane="E10_0" arrivalPos="33.72" arrivalSpeed="8.20" duration="131.00" routeLength="323.68" waitingTime="58.00" waitingCount="6" stopTime="0.00" timeLoss="106.34" rerouteNo="0" devices="tripinfo_flow3.6" vType="car" speedFactor="1.02" vaporized=""/>
    <tripinfo id="flow3.7" depart="70.00" departLane="-E5_0" departPos="5.10" departSpeed="0.00" departDelay="0.00" arrival="197.00" arrivalLane="E10_0" arrivalPos="33.72" arrivalSpeed="7.95" duration="127.00" routeLength="323.68" waitingTime="46.00" waitingCount="4" stopTime="0.00" timeLoss="99.28" rerouteNo="0" devices="tripinfo_flow3.7" vType="car" speedFactor="0.89" vaporized=""/>
    <tripinfo id="flow3.8" depart="80.00" departLane="-E5_0" departPos="5.10" departSpeed="0.00" departDelay="0.00" arrival="205.00" arrivalLane="E10_0" arrivalPos="33.72" arrivalSpeed="7.74" duration="125.00" routeLength="323.68" waitingTime="41.00" waitingCount="5" stopTime="0.00" timeLoss="98.20" rerouteNo="0" devices="tripinfo_flow3.8" vType="car" speedFactor="0.92" vaporized=""/>
    <tripinfo id="flow3.9" depart="90.00" departLane="-E5_0" departPos="5.10" departSpeed="0.00" departDelay="0.00" arrival="216.00" arrivalLane="E10_0" arrivalPos="33.72" arrivalSpeed="7.33" duration="126.00" routeLength="323.68" waitingTime="37.00" waitingCount="5" stopTime="0.00" timeLoss="99.35" rerouteNo="0" devices="tripinfo_flow3.9" vType="car" speedFactor="0.93" vaporized=""/>
    <tripinfo id="flow3.10" depart="100.00" departLane="-E5_0" departPos="5.10" departSpeed="0.00" departDelay="0.00" arrival="220.00" arrivalLane="E10_0" arrivalPos="33.72" arrivalSpeed="9.11" duration="120.00" routeLength="323.68" waitingTime="31.00" waitingCount="4" stopTime="0.00" timeLoss="94.70" rerouteNo="0" devices="tripinfo_flow3.10" vType="car" speedFactor="1.01" vaporized=""/>
    <tripinfo id="flow3.11" depart="110.00" departLane="-E5_0" departPos="5.10" departSpeed="0.00" departDelay="0.00" arrival="227.00" arrivalLane="E10_0" arrivalPos="33.72" arrivalSpeed="8.50" duration="117.00" routeLength="323.68" waitingTime="24.00" waitingCount="5" stopTime="0.00" timeLoss="92.41" rerouteNo="0" devices="tripinfo_flow3.11" vType="car" speedFactor="1.02" vaporized=""/>
    <tripinfo id="flow3.12" depart="120.00" departLane="-E5_0" departPos="5.10" departSpeed="0.00" departDelay="0.00" arrival="229.00" arrivalLane="E10_0" arrivalPos="33.72" arrivalSpeed="8.36" duration="109.00" routeLength="323.68" waitingTime="12.00" waitingCount="3" stopTime="0.00" timeLoss="85.82" rerouteNo="0" devices="tripinfo_flow3.12" vType="car" speedFactor="1.10" vaporized=""/>
    <tripinfo id="flow0.2" depart="20.00" departLane="-E10_0" departPos="5.10" departSpeed="0.00" departDelay="0.00" arrival="243.00" arrivalLane="E10_0" arrivalPos="33.72" arrivalSpeed="7.70" duration="223.00" routeLength="540.68" waitingTime="86.00" waitingCount="6" stopTime="0.00" timeLoss="183.19" rerouteNo="0" devices="tripinfo_flow0.2" vType="car" speedFactor="1.05" vaporized=""/>
    <tripinfo id="flow0.3" depart="30.00" departLane="-E10_0" departPos="5.10" departSpeed="0.00" departDelay="0.00" arrival="245.00" arrivalLane="E10_0" arrivalPos="33.72" arrivalSpeed="8.61" duration="215.00" routeLength="540.68" waitingTime="77.00" waitingCount="6" stopTime="0.00" timeLoss="165.95" rerouteNo="0" devices="tripinfo_flow0.3" vType="car" speedFactor="0.86" vaporized=""/>
    <tripinfo id="flow0.4" depart="40.00" departLane="-E10_0" departPos="5.10" departSpeed="0.00" departDelay="0.00" arrival="247.00" arrivalLane="E10_0" arrivalPos="33.72" arrivalSpeed="9.26" duration="207.00" routeLength="540.68" waitingTime="68.00" waitingCount="6" stopTime="0.00" timeLoss="167.10" rerouteNo="0" devices="tripinfo_flow0.4" vType="car" speedFactor="1.05" vaporized=""/>
    <tripinfo id="flow0.5" depart="50.00" departLane="-E10_0" departPos="5.10" departSpeed="0.00" departDelay="0.00" arrival="254.00" arrivalLane="E10_0" arrivalPos="33.72" arrivalSpeed="8.73" duration="204.00" routeLength="540.68" waitingTime="56.00" waitingCount="4" stopTime="0.00" timeLoss="158.87" rerouteNo="0" devices="tripinfo_flow0.5" vType="car" speedFactor="0.93" vaporized=""/>
    <tripinfo id="flow0.6" depart="60.00" departLane="-E10_0" departPos="5.10" departSpeed="0.00" departDelay="0.00" arrival="256.00" arrivalLane="E10_0" arrivalPos="33.72" arrivalSpeed="8.62" duration="196.00" routeLength="540.68" waitingTime="86.00" waitingCount="4" stopTime="0.00" timeLoss="150.58" rerouteNo="0" devices="tripinfo_flow0.6" vType="car" speedFactor="0.94" vaporized=""/>
    <tripinfo id="flow0.7" depart="70.00" departLane="-E10_0" departPos="5.10" departSpeed="0.00" departDelay="0.00" arrival="259.00" arrivalLane="E10_0" arrivalPos="33.72" arrivalSpeed="8.86" duration="189.00" routeLength="540.68" waitingTime="77.00" waitingCount="5" stopTime="0.00" timeLoss="147.16" rerouteNo="0" devices="tripinfo_flow0.7" vType="car" speedFactor="1.01" vaporized=""/>
    <tripinfo id="flow2.8" depart="80.00" departLane="-E1_0" departPos="5.10" departSpeed="0.00" departDelay="0.00" arrival="264.00" arrivalLane="E9_0" arrivalPos="51.14" arrivalSpeed="10.78" duration="184.00" routeLength="339.82" waitingTime="104.00" waitingCount="4" stopTime="0.00" timeLoss="154.10" rerouteNo="0" devices="tripinfo_flow2.8" vType="car" speedFactor="0.87" vaporized=""/>
    <tripinfo id="flow2.9" depart="90.00" departLane="-E1_0" departPos="5.10" departSpeed="0.00" departDelay="0.00" arrival="266.00" arrivalLane="E9_0" arrivalPos="51.14" arrivalSpeed="11.09" duration="176.00" routeLength="339.82" waitingTime="95.00" waitingCount="4" stopTime="0.00" timeLoss="153.12" rerouteNo="0" devices="tripinfo_flow2.9" vType="car" speedFactor="1.13" vaporized=""/>
    <tripinfo id="flow2.10" depart="100.00" departLane="-E1_0" departPos="5.10" departSpeed="0.00" departDelay="0.00" arrival="268.00" arrivalLane="E9_0" arrivalPos="51.14" arrivalSpeed="11.57" duration="168.00" routeLength="339.82" waitingTime="84.00" waitingCount="4" stopTime="0.00" timeLoss="145.19" rerouteNo="0" devices="tripinfo_flow2.10" vType="car" speedFactor="1.15" vaporized=""/>
    <tripinfo id="flow0.8" depart="80.00" departLane="-E10_0" departPos="5.10" departSpeed="0.00" departDelay="0.00" arrival="270.00" arrivalLane="E10_0" arrivalPos="33.72" arrivalSpeed="7.56" duration="190.00" routeLength="540.68" waitingTime="80.00" waitingCount="6" stopTime="0.00" timeLoss="139.11" rerouteNo="0" devices="tripinfo_flow0.8" vType="car" speedFactor="0.83" vaporized=""/>
    <tripinfo id="flow2.11" depart="110.00" departLane="-E1_0" departPos="5.10" departSpeed="0.00" departDelay="0.00" arrival="271.00" arrivalLane="E9_0" arrivalPos="51.14" arrivalSpeed="10.68" duration="161.00" routeLength="339.82" waitingTime="76.00" waitingCount="4" stopTime="0.00" timeLoss="133.99" rerouteNo="0" devices="tripinfo_flow2.11" vType="car" speedFactor="0.99" vaporized=""/>
    <tripinfo id="flow0.9" depart="90.00" departLane="-E10_0" departPos="5.10" departSpeed="0.00" departDelay="0.00" arrival="272.00" arrivalLane="E10_0" arrivalPos="33.72" arrivalSpeed="8.38" duration="182.00" routeLength="540.68" waitingTime="71.00" waitingCount="6" stopTime="0.00" timeLoss="138.03" rerouteNo="0" devices="tripinfo_flow0.9" vType="car" speedFactor="0.95" vaporized=""/>
    <tripinfo id="flow2.12" depart="120.00" departLane="-E1_0" departPos="5.10" departSpeed="0.00" departDelay="0.00" arrival="273.00" arrivalLane="E9_0" arrivalPos="51.14" arrivalSpeed="11.47" duration="153.00" routeLength="339.82" waitingTime="68.00" waitingCount="4" stopTime="0.00" timeLoss="130.67" rerouteNo="0" devices="tripinfo_flow2.12" vType="car" speedFactor="1.18" vaporized=""/>
    <tripinfo id="flow0.10" depart="100.00" departLane="-E10_0" departPos="5.10" departSpeed="0.00" departDelay="0.00" arrival="278.00" arrivalLane="E10_0" arrivalPos="33.72" arrivalSpeed="8.45" duration="178.00" routeLength="540.68" waitingTime="65.00" waitingCount="4" stopTime="0.00" timeLoss="142.15" rerouteNo="0" devices="tripinfo_flow0.10" vType="car" speedFactor="1.18" vaporized=""/>
    <tripinfo id="flow0.11" depart="110.00" departLane="-E10_0" departPos="5.10" departSpeed="0.00" departDelay="0.00" arrival="284.00" arrivalLane="E10_0" arrivalPos="33.72" arrivalSpeed="8.75" duration="174.00" routeLength="540.68" waitingTime="61.00" waitingCount="4" stopTime="0.00" timeLoss="138.18" rerouteNo="0" devices="tripinfo_flow0.11" vType="car" speedFactor="1.17" vaporized=""/>
    <tripinfo id="flow3.13" depart="130.00" departLane="-E5_0" departPos="5.10" departSpeed="0.00" departDelay="0.00" arrival="294.00" arrivalLane="E10_0" arrivalPos="33.72" arrivalSpeed="7.96" duration="164.00" routeLength="323.68" waitingTime="80.00" waitingCount="5" stopTime="0.00" timeLoss="138.17" rerouteNo="0" devices="tripinfo_flow3.13" vType="car" speedFactor="0.96" vaporized=""/>
    <tripinfo id="flow3.14" depart="140.00" departLane="-E5_0" departPos="5.10" departSpeed="0.00" departDelay="0.00" arrival="304.00" arrivalLane="E10_0" arrivalPos="33.72" arrivalSpeed="7.32" duration="164.00" routeLength="323.68" waitingTime="71.00" waitingCount="6" stopTime="0.00" timeLoss="140.23" rerouteNo="0" devices="tripinfo_flow3.14" vType="car" speedFactor="1.04" vaporized=""/>
    <tripinfo id="flow3.15" depart="150.00" departLane="-E5_0" departPos="5.10" departSpeed="0.00" departDelay="0.00" arrival="307.00" arrivalLane="E10_0" arrivalPos="33.72" arrivalSpeed="8.31" duration="157.00" routeLength="323.68" waitingTime="60.00" waitingCount="3" stopTime="0.00" timeLoss="129.06" rerouteNo="0" devices="tripinfo_flow3.15" vType="car" speedFactor="0.90" vaporized=""/>
    <tripinfo id="flow3.16" depart="160.00" departLane="-E5_0" departPos="5.10" departSpeed="0.00" departDelay="0.00" arrival="309.00" arrivalLane="E10_0" arrivalPos="33.72" arrivalSpeed="9.28" duration="149.00" routeLength="323.68" waitingTime="51.00" waitingCount="2" stopTime="0.00" timeLoss="119.11" rerouteNo="0" devices="tripinfo_flow3.16" vType="car" speedFactor="0.85" vaporized=""/>
    <tripinfo id="flow3.17" depart="170.00" departLane="-E5_0" departPos="5.10" departSpeed="0.00" departDelay="0.00" arrival="321.00" arrivalLane="E10_0" arrivalPos="33.72" arrivalSpeed="7.92" duration="151.00" routeLength="323.68" waitingTime="49.00" waitingCount="4" stopTime="0.00" timeLoss="128.48" rerouteNo="0" devices="tripinfo_flow3.17" vType="car" speedFactor="1.10" vaporized=""/>
    <tripinfo id="flow2.13" depart="130.00" departLane="-E1_0" departPos="5.10" departSpeed="0.00" departDelay="0.00" arrival="326.00" arrivalLane="E9_0" arrivalPos="51.14" arrivalSpeed="9.45" duration="196.00" routeLength="339.82" waitingTime="113.00" waitingCount="5" stopTime="0.00" timeLoss="170.91" rerouteNo="0" devices="tripinfo_flow2.13" vType="car" speedFactor="1.03" vaporized=""/>
    <tripinfo id="flow2.14" depart="143.00" departLane="-E1_0" departPos="5.10" departSpeed="0.00" departDelay="3.00" arrival="329.00" arrivalLane="E9_0" arrivalPos="51.14" arrivalSpeed="10.28" duration="186.00" routeLength="339.82" waitingTime="105.00" waitingCount="4" stopTime="0.00" timeLoss="160.52" rerouteNo="0" devices="tripinfo_flow2.14" vType="car" speedFactor="1.04" vaporized=""/>
    <tripinfo id="flow2.15" depart="150.00" departLane="-E1_0" departPos="5.10" departSpeed="0.00" departDelay="0.00" arrival="331.00" arrivalLane="E9_0" arrivalPos="51.14" arrivalSpeed="10.47" duration="181.00" routeLength="339.82" waitingTime="98.00" waitingCount="4" stopTime="0.00" timeLoss="154.84" rerouteNo="0" devices="tripinfo_flow2.15" vType="car" speedFactor="1.00" vaporized=""/>
    <tripinfo id="flow0.12" depart="120.00" departLane="-E10_0" departPos="5.10" departSpeed="0.00" departDelay="0.00" arrival="355.00" arrivalLane="E10_0" arrivalPos="33.72" arrivalSpeed="8.27" duration="235.00" routeLength="540.68" waitingTime="131.00" waitingCount="5" stopTime="0.00" timeLoss="192.13" rerouteNo="0" devices="tripinfo_flow0.12" vType="car" speedFactor="0.97" vaporized=""/>
    <tripinfo id="flow2.16" depart="160.00" departLane="-E1_0" departPos="5.10" departSpeed="0.00" departDelay="0.00" arrival="364.00" arrivalLane="E9_0" arrivalPos="51.14" arrivalSpeed="10.50" duration="204.00" routeLength="339.82" waitingTime="126.00" waitingCount="3" stopTime="0.00" timeLoss="173.10" rerouteNo="0" devices="tripinfo_flow2.16" vType="car" speedFactor="0.85" vaporized=""/>
    <tripinfo id="flow0.13" depart="130.00" departLane="-E10_0" departPos="5.10" departSpeed="0.00" departDelay="0.00" arrival="365.00" arrivalLane="E10_0" arrivalPos="33.72" arrivalSpeed="7.85" duration="235.00" routeLength="540.68" waitingTime="125.00" waitingCount="8" stopTime="0.00" timeLoss="188.25" rerouteNo="0" devices="tripinfo_flow0.13" vType="car" speedFactor="0.90" vaporized=""/>
    <tripinfo id="flow0.14" depart="140.00" departLane="-E10_0" departPos="5.10" departSpeed="0.00" departDelay="0.00" arrival="372.00" arrivalLane="E10_0" arrivalPos="33.72" arrivalSpeed="8.46" duration="232.00" routeLength="540.68" waitingTime="105.00" waitingCount="10" stopTime="0.00" timeLoss="193.33" rerouteNo="0" devices="tripinfo_flow0.14" vType="car" speedFactor="1.09" vaporized=""/>
    <tripinfo id="flow0.15" depart="150.00" departLane="-E10_0" departPos="5.10" departSpeed="0.00" departDelay="0.00" arrival="376.00" arrivalLane="E10_0" arrivalPos="33.72" arrivalSpeed="8.59" duration="226.00" routeLength="540.68" waitingTime="90.00" waitingCount="8" stopTime="0.00" timeLoss="187.23" rerouteNo="0" devices="tripinfo_flow0.15" vType="car" speedFactor="1.09" vaporized=""/>
    <tripinfo id="flow3.18" depart="180.00" departLane="-E5_0" departPos="5.10" departSpeed="0.00" departDelay="0.00" arrival="378.00" arrivalLane="E10_0" arrivalPos="33.72" arrivalSpeed="8.89" duration="198.00" routeLength="323.68" waitingTime="115.00" waitingCount="2" stopTime="0.00" timeLoss="170.12" rerouteNo="0" devices="tripinfo_flow3.18" vType="car" speedFactor="0.90" vaporized=""/>
    <tripinfo id="flow3.19" depart="190.00" departLane="-E5_0" departPos="5.10" departSpeed="0.00" departDelay="0.00" arrival="382.00" arrivalLane="E10_0" arrivalPos="33.72" arrivalSpeed="8.51" duration="192.00" routeLength="323.68" waitingTime="111.00" waitingCount="2" stopTime="0.00" timeLoss="166.75" rerouteNo="0" devices="tripinfo_flow3.19" vType="car" speedFactor="0.97" vaporized=""/>
    <tripinfo id="flow3.20" depart="200.00" departLane="-E5_0" departPos="5.10" departSpeed="0.00" departDelay="0.00" arrival="390.00" arrivalLane="E10_0" arrivalPos="33.72" arrivalSpeed="7.61" duration="190.00" routeLength="323.68" waitingTime="102.00" waitingCount="2" stopTime="0.00" timeLoss="165.31" rerouteNo="0" devices="tripinfo_flow3.20" vType="car" speedFactor="1.02" vaporized=""/>
    <tripinfo id="flow3.21" depart="210.00" departLane="-E5_0" departPos="5.10" departSpeed="0.00" departDelay="0.00" arrival="401.00" arrivalLane="E10_0" arrivalPos="33.72" arrivalSpeed="8.12" duration="191.00" routeLength="323.68" waitingTime="96.00" waitingCount="4" stopTime="0.00" timeLoss="162.76" rerouteNo="0" devices="tripinfo_flow3.21" vType="car" speedFactor="0.88" vaporized=""/>
    <tripinfo id="flow0.16" depart="160.00" departLane="-E10_0" departPos="5.10" departSpeed="0.00" departDelay="0.00" arrival="409.00" arrivalLane="E10_0" arrivalPos="33.72" arrivalSpeed="8.05" duration="249.00" routeLength="540.68" waitingTime="103.00" waitingCount="7" stopTime="0.00" timeLoss="200.63" rerouteNo="0" devices="tripinfo_flow0.16" vType="car" speedFactor="0.88" vaporized=""/>
    <tripinfo id="flow0.17" depart="170.00" departLane="-E10_0" departPos="5.10" departSpeed="0.00" departDelay="0.00" arrival="411.00" arrivalLane="E10_0" arrivalPos="33.72" arrivalSpeed="8.26" duration="241.00" routeLength="540.68" waitingTime="98.00" waitingCount="7" stopTime="0.00" timeLoss="205.58" rerouteNo="0" devices="tripinfo_flow0.17" vType="car" speedFactor="1.17" vaporized=""/>
    <tripinfo id="flow0.18" depart="180.00" departLane="-E10_0" departPos="5.10" departSpeed="0.00" departDelay="0.00" arrival="413.00" arrivalLane="E10_0" arrivalPos="33.72" arrivalSpeed="9.18" duration="233.00" routeLength="540.68" waitingTime="96.00" waitingCount="5" stopTime="0.00" timeLoss="191.12" rerouteNo="0" devices="tripinfo_flow0.18" vType="car" speedFactor="1.00" vaporized=""/>
    <tripinfo id="flow2.17" depart="170.00" departLane="-E1_0" departPos="5.10" departSpeed="0.00" departDelay="0.00" arrival="417.00" arrivalLane="E9_0" arrivalPos="51.14" arrivalSpeed="9.82" duration="247.00" routeLength="339.82" waitingTime="166.00" waitingCount="4" stopTime="0.00" timeLoss="221.30" rerouteNo="0" devices="tripinfo_flow2.17" vType="car" speedFactor="1.02" vaporized=""/>
    <tripinfo id="flow2.18" depart="180.00" departLane="-E1_0" departPos="5.10" departSpeed="0.00" departDelay="0.00" arrival="419.00" arrivalLane="E9_0" arrivalPos="51.14" arrivalSpeed="9.47" duration="239.00" routeLength="339.82" waitingTime="159.00" waitingCount="4" stopTime="0.00" timeLoss="213.07" rerouteNo="0" devices="tripinfo_flow2.18" vType="car" speedFactor="1.00" vaporized=""/>
    <tripinfo id="flow0.19" depart="190.00" departLane="-E10_0" departPos="5.10" departSpeed="0.00" departDelay="0.00" arrival="421.00" arrivalLane="E10_0" arrivalPos="33.72" arrivalSpeed="8.01" duration="231.00" routeLength="540.68" waitingTime="81.00" waitingCount="7" stopTime="0.00" timeLoss="194.48" rerouteNo="0" devices="tripinfo_flow0.19" vType="car" speedFactor="1.14" vaporized=""/>
    <tripinfo id="flow2.19" depart="190.00" departLane="-E1_0" departPos="5.10" departSpeed="0.00" departDelay="0.00" arrival="422.00" arrivalLane="E9_0" arrivalPos="51.14" arrivalSpeed="10.90" duration="232.00" routeLength="339.82" waitingTime="152.00" waitingCount="4" stopTime="0.00" timeLoss="206.44" rerouteNo="0" devices="tripinfo_flow2.19" vType="car" speedFactor="1.02" vaporized=""/>
    <tripinfo id="flow0.20" depart="200.00" departLane="-E10_0" departPos="5.10" departSpeed="0.00" departDelay="0.00" arrival="435.00" arrivalLane="E10_0" arrivalPos="33.72" arrivalSpeed="9.42" duration="235.00" routeLength="540.68" waitingTime="140.00" waitingCount="4" stopTime="0.00" timeLoss="196.66" rerouteNo="0" devices="tripinfo_flow0.20" vType="car" speedFactor="1.08" vaporized=""/>
    <tripinfo id="flow0.21" depart="210.00" departLane="-E10_0" departPos="5.10" departSpeed="0.00" departDelay="0.00" arrival="439.00" arrivalLane="E10_0" arrivalPos="33.72" arrivalSpeed="9.64" duration="229.00" routeLength="540.68" waitingTime="120.00" waitingCount="6" stopTime="0.00" timeLoss="187.24" rerouteNo="0" devices="tripinfo_flow0.21" vType="car" speedFactor="0.99" vaporized=""/>
    <tripinfo id="flow0.22" depart="220.00" departLane="-E10_0" departPos="5.10" departSpeed="0.00" departDelay="0.00" arrival="446.00" arrivalLane="E10_0" arrivalPos="33.72" arrivalSpeed="8.04" duration="226.00" routeLength="540.68" waitingTime="116.00" waitingCount="5" stopTime="0.00" timeLoss="180.08" rerouteNo="0" devices="tripinfo_flow0.22" vType="car" speedFactor="0.91" vaporized=""/>
    <tripinfo id="flow3.22" depart="220.00" departLane="-E5_0" departPos="5.10" departSpeed="0.00" departDelay="0.00" arrival="455.00" arrivalLane="E10_0" arrivalPos="33.72" arrivalSpeed="8.25" duration="235.00" routeLength="323.68" waitingTime="161.00" waitingCount="4" stopTime="0.00" timeLoss="211.05" rerouteNo="0" devices="tripinfo_flow3.22" vType="car" speedFactor="1.04" vaporized=""/>
    <tripinfo id="flow3.23" depart="230.00" departLane="-E5_0" departPos="5.10" departSpeed="0.00" departDelay="0.00" arrival="466.00" arrivalLane="E10_0" arrivalPos="33.72" arrivalSpeed="7.88" duration="236.00" routeLength="323.68" waitingTime="155.00" waitingCount="5" stopTime="0.00" timeLoss="210.66" rerouteNo="0" devices="tripinfo_flow3.23" vType="car" speedFactor="0.97" vaporized=""/>
    <tripinfo id="flow3.24" depart="277.00" departLane="-E5_0" departPos="5.10" departSpeed="0.00" departDelay="37.00" arrival="469.00" arrivalLane="E10_0" arrivalPos="33.72" arrivalSpeed="9.32" duration="192.00" routeLength="323.68" waitingTime="113.00" waitingCount="3" stopTime="0.00" timeLoss="165.05" rerouteNo="0" devices="tripinfo_flow3.24" vType="car" speedFactor="0.96" vaporized=""/>
    <tripinfo id="flow3.25" depart="281.00" departLane="-E5_0" departPos="5.10" departSpeed="0.00" departDelay="31.00" arrival="471.00" arrivalLane="E10_0" arrivalPos="33.72" arrivalSpeed="9.66" duration="190.00" routeLength="323.68" waitingTime="109.00" waitingCount="3" stopTime="0.00" timeLoss="164.32" rerouteNo="0" devices="tripinfo_flow3.25" vType="car" speedFactor="0.98" vaporized=""/>
    <tripinfo id="flow3.26" depart="286.00" departLane="-E5_0" departPos="5.10" departSpeed="0.00" departDelay="26.00" arrival="477.00" arrivalLane="E10_0" arrivalPos="33.72" arrivalSpeed="7.83" duration="191.00" routeLength="323.68" waitingTime="106.00" waitingCount="2" stopTime="0.00" timeLoss="166.91" rerouteNo="0" devices="tripinfo_flow3.26" vType="car" speedFactor="1.03" vaporized=""/>
    <tripinfo id="flow0.23" depart="230.00" departLane="-E10_0" departPos="5.10" departSpeed="0.00" departDelay="0.00" arrival="479.00" arrivalLane="E10_0" arrivalPos="33.72" arrivalSpeed="8.46" duration="249.00" routeLength="540.68" waitingTime="119.00" waitingCount="6" stopTime="0.00" timeLoss="208.28" rerouteNo="0" devices="tripinfo_flow0.23" vType="car" speedFactor="1.02" vaporized=""/>
    <tripinfo id="flow0.24" depart="240.00" departLane="-E10_0" departPos="5.10" departSpeed="0.00" departDelay="0.00" arrival="481.00" arrivalLane="E10_0" arrivalPos="33.72" arrivalSpeed="8.94" duration="241.00" routeLength="540.68" waitingTime="110.00" waitingCount="7" stopTime="0.00" timeLoss="195.84" rerouteNo="0" devices="tripinfo_flow0.24" vType="car" speedFactor="0.94" vaporized=""/>
    <tripinfo id="flow0.25" depart="250.00" departLane="-E10_0" departPos="5.10" departSpeed="0.00" departDelay="0.00" arrival="484.00" arrivalLane="E10_0" arrivalPos="33.72" arrivalSpeed="9.85" duration="234.00" routeLength="540.68" waitingTime="104.00" waitingCount="5" stopTime="0.00" timeLoss="191.32" rerouteNo="0" devices="tripinfo_flow0.25" vType="car" speedFactor="0.98" vaporized=""/>
    <tripinfo id="flow0.26" depart="260.00" departLane="-E10_0" departPos="5.10" departSpeed="0.00" departDelay="0.00" arrival="493.00" arrivalLane="E10_0" arrivalPos="33.72" arrivalSpeed="7.98" duration="233.00" routeLength="540.68" waitingTime="100.00" waitingCount="6" stopTime="0.00" timeLoss="191.27" rerouteNo="0" devices="tripinfo_flow0.26" vType="car" speedFactor="1.01" vaporized=""/>